# vtk DataFile Version 2.0
DMTA
ASCII

DATASET UNSTRUCTURED_GRID
POINTS 289 double
  0.000000  0.000000  0.0
  10.000000  0.000000  0.0
  10.000000  5.000000  0.0
  0.000000  5.000000  0.0
  5.000000  2.500000  0.0
  5.000000  0.000000  0.0
  10.000000  2.500000  0.0
  5.000000  5.000000  0.0
  0.000000  2.500000  0.0
  2.500000  1.250000  0.0
  2.500000  0.000000  0.0
  5.000000  1.250000  0.0
  2.500000  2.500000  0.0
  0.000000  1.250000  0.0
  7.500000  1.250000  0.0
  7.500000  0.000000  0.0
  10.000000  1.250000  0.0
  7.500000  2.500000  0.0
  7.500000  3.750000  0.0
  10.000000  3.750000  0.0
  7.500000  5.000000  0.0
  5.000000  3.750000  0.0
  2.500000  3.750000  0.0
  2.500000  5.000000  0.0
  0.000000  3.750000  0.0
  1.250000  0.625000  0.0
  1.250000  0.000000  0.0
  2.500000  0.625000  0.0
  1.250000  1.250000  0.0
  0.000000  0.625000  0.0
  3.750000  0.625000  0.0
  3.750000  0.000000  0.0
  5.000000  0.625000  0.0
  3.750000  1.250000  0.0
  3.750000  1.875000  0.0
  5.000000  1.875000  0.0
  3.750000  2.500000  0.0
  2.500000  1.875000  0.0
  1.250000  1.875000  0.0
  1.250000  2.500000  0.0
  0.000000  1.875000  0.0
  6.250000  0.625000  0.0
  6.250000  0.000000  0.0
  7.500000  0.625000  0.0
  6.250000  1.250000  0.0
  8.750000  0.625000  0.0
  8.750000  0.000000  0.0
  10.000000  0.625000  0.0
  8.750000  1.250000  0.0
  8.750000  1.875000  0.0
  10.000000  1.875000  0.0
  8.750000  2.500000  0.0
  7.500000  1.875000  0.0
  6.250000  1.875000  0.0
  6.250000  2.500000  0.0
  6.250000  3.125000  0.0
  7.500000  3.125000  0.0
  6.250000  3.750000  0.0
  5.000000  3.125000  0.0
  8.750000  3.125000  0.0
  10.000000  3.125000  0.0
  8.750000  3.750000  0.0
  8.750000  4.375000  0.0
  10.000000  4.375000  0.0
  8.750000  5.000000  0.0
  7.500000  4.375000  0.0
  6.250000  4.375000  0.0
  6.250000  5.000000  0.0
  5.000000  4.375000  0.0
  1.250000  3.125000  0.0
  2.500000  3.125000  0.0
  1.250000  3.750000  0.0
  0.000000  3.125000  0.0
  3.750000  3.125000  0.0
  3.750000  3.750000  0.0
  3.750000  4.375000  0.0
  3.750000  5.000000  0.0
  2.500000  4.375000  0.0
  1.250000  4.375000  0.0
  1.250000  5.000000  0.0
  0.000000  4.375000  0.0
  0.625000  0.312500  0.0
  0.625000  0.000000  0.0
  1.250000  0.312500  0.0
  0.625000  0.625000  0.0
  0.000000  0.312500  0.0
  1.875000  0.312500  0.0
  1.875000  0.000000  0.0
  2.500000  0.312500  0.0
  1.875000  0.625000  0.0
  1.875000  0.937500  0.0
  2.500000  0.937500  0.0
  1.875000  1.250000  0.0
  1.250000  0.937500  0.0
  0.625000  0.937500  0.0
  0.625000  1.250000  0.0
  0.000000  0.937500  0.0
  3.125000  0.312500  0.0
  3.125000  0.000000  0.0
  3.750000  0.312500  0.0
  3.125000  0.625000  0.0
  4.375000  0.312500  0.0
  4.375000  0.000000  0.0
  5.000000  0.312500  0.0
  4.375000  0.625000  0.0
  4.375000  0.937500  0.0
  5.000000  0.937500  0.0
  4.375000  1.250000  0.0
  3.750000  0.937500  0.0
  3.125000  0.937500  0.0
  3.125000  1.250000  0.0
  3.125000  1.562500  0.0
  3.750000  1.562500  0.0
  3.125000  1.875000  0.0
  2.500000  1.562500  0.0
  4.375000  1.562500  0.0
  5.000000  1.562500  0.0
  4.375000  1.875000  0.0
  4.375000  2.187500  0.0
  5.000000  2.187500  0.0
  4.375000  2.500000  0.0
  3.750000  2.187500  0.0
  3.125000  2.187500  0.0
  3.125000  2.500000  0.0
  2.500000  2.187500  0.0
  0.625000  1.562500  0.0
  1.250000  1.562500  0.0
  0.625000  1.875000  0.0
  0.000000  1.562500  0.0
  1.875000  1.562500  0.0
  1.875000  1.875000  0.0
  1.875000  2.187500  0.0
  1.875000  2.500000  0.0
  1.250000  2.187500  0.0
  0.625000  2.187500  0.0
  0.625000  2.500000  0.0
  0.000000  2.187500  0.0
  5.625000  0.312500  0.0
  5.625000  0.000000  0.0
  6.250000  0.312500  0.0
  5.625000  0.625000  0.0
  6.875000  0.312500  0.0
  6.875000  0.000000  0.0
  7.500000  0.312500  0.0
  6.875000  0.625000  0.0
  6.875000  0.937500  0.0
  7.500000  0.937500  0.0
  6.875000  1.250000  0.0
  6.250000  0.937500  0.0
  5.625000  0.937500  0.0
  5.625000  1.250000  0.0
  8.125000  0.312500  0.0
  8.125000  0.000000  0.0
  8.750000  0.312500  0.0
  8.125000  0.625000  0.0
  9.375000  0.312500  0.0
  9.375000  0.000000  0.0
  10.000000  0.312500  0.0
  9.375000  0.625000  0.0
  9.375000  0.937500  0.0
  10.000000  0.937500  0.0
  9.375000  1.250000  0.0
  8.750000  0.937500  0.0
  8.125000  0.937500  0.0
  8.125000  1.250000  0.0
  8.125000  1.562500  0.0
  8.750000  1.562500  0.0
  8.125000  1.875000  0.0
  7.500000  1.562500  0.0
  9.375000  1.562500  0.0
  10.000000  1.562500  0.0
  9.375000  1.875000  0.0
  9.375000  2.187500  0.0
  10.000000  2.187500  0.0
  9.375000  2.500000  0.0
  8.750000  2.187500  0.0
  8.125000  2.187500  0.0
  8.125000  2.500000  0.0
  7.500000  2.187500  0.0
  5.625000  1.562500  0.0
  6.250000  1.562500  0.0
  5.625000  1.875000  0.0
  6.875000  1.562500  0.0
  6.875000  1.875000  0.0
  6.875000  2.187500  0.0
  6.875000  2.500000  0.0
  6.250000  2.187500  0.0
  5.625000  2.187500  0.0
  5.625000  2.500000  0.0
  5.625000  2.812500  0.0
  6.250000  2.812500  0.0
  5.625000  3.125000  0.0
  5.000000  2.812500  0.0
  6.875000  2.812500  0.0
  7.500000  2.812500  0.0
  6.875000  3.125000  0.0
  6.875000  3.437500  0.0
  7.500000  3.437500  0.0
  6.875000  3.750000  0.0
  6.250000  3.437500  0.0
  5.625000  3.437500  0.0
  5.625000  3.750000  0.0
  5.000000  3.437500  0.0
  8.125000  2.812500  0.0
  8.750000  2.812500  0.0
  8.125000  3.125000  0.0
  9.375000  2.812500  0.0
  10.000000  2.812500  0.0
  9.375000  3.125000  0.0
  9.375000  3.437500  0.0
  10.000000  3.437500  0.0
  9.375000  3.750000  0.0
  8.750000  3.437500  0.0
  8.125000  3.437500  0.0
  8.125000  3.750000  0.0
  8.125000  4.062500  0.0
  8.750000  4.062500  0.0
  8.125000  4.375000  0.0
  7.500000  4.062500  0.0
  9.375000  4.062500  0.0
  10.000000  4.062500  0.0
  9.375000  4.375000  0.0
  9.375000  4.687500  0.0
  10.000000  4.687500  0.0
  9.375000  5.000000  0.0
  8.750000  4.687500  0.0
  8.125000  4.687500  0.0
  8.125000  5.000000  0.0
  7.500000  4.687500  0.0
  5.625000  4.062500  0.0
  6.250000  4.062500  0.0
  5.625000  4.375000  0.0
  5.000000  4.062500  0.0
  6.875000  4.062500  0.0
  6.875000  4.375000  0.0
  6.875000  4.687500  0.0
  6.875000  5.000000  0.0
  6.250000  4.687500  0.0
  5.625000  4.687500  0.0
  5.625000  5.000000  0.0
  5.000000  4.687500  0.0
  0.625000  2.812500  0.0
  1.250000  2.812500  0.0
  0.625000  3.125000  0.0
  0.000000  2.812500  0.0
  1.875000  2.812500  0.0
  2.500000  2.812500  0.0
  1.875000  3.125000  0.0
  1.875000  3.437500  0.0
  2.500000  3.437500  0.0
  1.875000  3.750000  0.0
  1.250000  3.437500  0.0
  0.625000  3.437500  0.0
  0.625000  3.750000  0.0
  0.000000  3.437500  0.0
  3.125000  2.812500  0.0
  3.750000  2.812500  0.0
  3.125000  3.125000  0.0
  4.375000  2.812500  0.0
  4.375000  3.125000  0.0
  4.375000  3.437500  0.0
  4.375000  3.750000  0.0
  3.750000  3.437500  0.0
  3.125000  3.437500  0.0
  3.125000  3.750000  0.0
  3.125000  4.062500  0.0
  3.750000  4.062500  0.0
  3.125000  4.375000  0.0
  2.500000  4.062500  0.0
  4.375000  4.062500  0.0
  4.375000  4.375000  0.0
  4.375000  4.687500  0.0
  4.375000  5.000000  0.0
  3.750000  4.687500  0.0
  3.125000  4.687500  0.0
  3.125000  5.000000  0.0
  2.500000  4.687500  0.0
  0.625000  4.062500  0.0
  1.250000  4.062500  0.0
  0.625000  4.375000  0.0
  0.000000  4.062500  0.0
  1.875000  4.062500  0.0
  1.875000  4.375000  0.0
  1.875000  4.687500  0.0
  1.875000  5.000000  0.0
  1.250000  4.687500  0.0
  0.625000  4.687500  0.0
  0.625000  5.000000  0.0
  0.000000  4.687500  0.0

CELLS  256  1280
  4  0  82  81  85
  4  82  26  83  81
  4  81  83  25  84
  4  85  81  84  29
  4  26  87  86  83
  4  87  10  88  86
  4  86  88  27  89
  4  83  86  89  25
  4  25  89  90  93
  4  89  27  91  90
  4  90  91  9  92
  4  93  90  92  28
  4  29  84  94  96
  4  84  25  93  94
  4  94  93  28  95
  4  96  94  95  13
  4  10  98  97  88
  4  98  31  99  97
  4  97  99  30  100
  4  88  97  100  27
  4  31  102  101  99
  4  102  5  103  101
  4  101  103  32  104
  4  99  101  104  30
  4  30  104  105  108
  4  104  32  106  105
  4  105  106  11  107
  4  108  105  107  33
  4  27  100  109  91
  4  100  30  108  109
  4  109  108  33  110
  4  91  109  110  9
  4  9  110  111  114
  4  110  33  112  111
  4  111  112  34  113
  4  114  111  113  37
  4  33  107  115  112
  4  107  11  116  115
  4  115  116  35  117
  4  112  115  117  34
  4  34  117  118  121
  4  117  35  119  118
  4  118  119  4  120
  4  121  118  120  36
  4  37  113  122  124
  4  113  34  121  122
  4  122  121  36  123
  4  124  122  123  12
  4  13  95  125  128
  4  95  28  126  125
  4  125  126  38  127
  4  128  125  127  40
  4  28  92  129  126
  4  92  9  114  129
  4  129  114  37  130
  4  126  129  130  38
  4  38  130  131  133
  4  130  37  124  131
  4  131  124  12  132
  4  133  131  132  39
  4  40  127  134  136
  4  127  38  133  134
  4  134  133  39  135
  4  136  134  135  8
  4  5  138  137  103
  4  138  42  139  137
  4  137  139  41  140
  4  103  137  140  32
  4  42  142  141  139
  4  142  15  143  141
  4  141  143  43  144
  4  139  141  144  41
  4  41  144  145  148
  4  144  43  146  145
  4  145  146  14  147
  4  148  145  147  44
  4  32  140  149  106
  4  140  41  148  149
  4  149  148  44  150
  4  106  149  150  11
  4  15  152  151  143
  4  152  46  153  151
  4  151  153  45  154
  4  143  151  154  43
  4  46  156  155  153
  4  156  1  157  155
  4  155  157  47  158
  4  153  155  158  45
  4  45  158  159  162
  4  158  47  160  159
  4  159  160  16  161
  4  162  159  161  48
  4  43  154  163  146
  4  154  45  162  163
  4  163  162  48  164
  4  146  163  164  14
  4  14  164  165  168
  4  164  48  166  165
  4  165  166  49  167
  4  168  165  167  52
  4  48  161  169  166
  4  161  16  170  169
  4  169  170  50  171
  4  166  169  171  49
  4  49  171  172  175
  4  171  50  173  172
  4  172  173  6  174
  4  175  172  174  51
  4  52  167  176  178
  4  167  49  175  176
  4  176  175  51  177
  4  178  176  177  17
  4  11  150  179  116
  4  150  44  180  179
  4  179  180  53  181
  4  116  179  181  35
  4  44  147  182  180
  4  147  14  168  182
  4  182  168  52  183
  4  180  182  183  53
  4  53  183  184  186
  4  183  52  178  184
  4  184  178  17  185
  4  186  184  185  54
  4  35  181  187  119
  4  181  53  186  187
  4  187  186  54  188
  4  119  187  188  4
  4  4  188  189  192
  4  188  54  190  189
  4  189  190  55  191
  4  192  189  191  58
  4  54  185  193  190
  4  185  17  194  193
  4  193  194  56  195
  4  190  193  195  55
  4  55  195  196  199
  4  195  56  197  196
  4  196  197  18  198
  4  199  196  198  57
  4  58  191  200  202
  4  191  55  199  200
  4  200  199  57  201
  4  202  200  201  21
  4  17  177  203  194
  4  177  51  204  203
  4  203  204  59  205
  4  194  203  205  56
  4  51  174  206  204
  4  174  6  207  206
  4  206  207  60  208
  4  204  206  208  59
  4  59  208  209  212
  4  208  60  210  209
  4  209  210  19  211
  4  212  209  211  61
  4  56  205  213  197
  4  205  59  212  213
  4  213  212  61  214
  4  197  213  214  18
  4  18  214  215  218
  4  214  61  216  215
  4  215  216  62  217
  4  218  215  217  65
  4  61  211  219  216
  4  211  19  220  219
  4  219  220  63  221
  4  216  219  221  62
  4  62  221  222  225
  4  221  63  223  222
  4  222  223  2  224
  4  225  222  224  64
  4  65  217  226  228
  4  217  62  225  226
  4  226  225  64  227
  4  228  226  227  20
  4  21  201  229  232
  4  201  57  230  229
  4  229  230  66  231
  4  232  229  231  68
  4  57  198  233  230
  4  198  18  218  233
  4  233  218  65  234
  4  230  233  234  66
  4  66  234  235  237
  4  234  65  228  235
  4  235  228  20  236
  4  237  235  236  67
  4  68  231  238  240
  4  231  66  237  238
  4  238  237  67  239
  4  240  238  239  7
  4  8  135  241  244
  4  135  39  242  241
  4  241  242  69  243
  4  244  241  243  72
  4  39  132  245  242
  4  132  12  246  245
  4  245  246  70  247
  4  242  245  247  69
  4  69  247  248  251
  4  247  70  249  248
  4  248  249  22  250
  4  251  248  250  71
  4  72  243  252  254
  4  243  69  251  252
  4  252  251  71  253
  4  254  252  253  24
  4  12  123  255  246
  4  123  36  256  255
  4  255  256  73  257
  4  246  255  257  70
  4  36  120  258  256
  4  120  4  192  258
  4  258  192  58  259
  4  256  258  259  73
  4  73  259  260  262
  4  259  58  202  260
  4  260  202  21  261
  4  262  260  261  74
  4  70  257  263  249
  4  257  73  262  263
  4  263  262  74  264
  4  249  263  264  22
  4  22  264  265  268
  4  264  74  266  265
  4  265  266  75  267
  4  268  265  267  77
  4  74  261  269  266
  4  261  21  232  269
  4  269  232  68  270
  4  266  269  270  75
  4  75  270  271  273
  4  270  68  240  271
  4  271  240  7  272
  4  273  271  272  76
  4  77  267  274  276
  4  267  75  273  274
  4  274  273  76  275
  4  276  274  275  23
  4  24  253  277  280
  4  253  71  278  277
  4  277  278  78  279
  4  280  277  279  80
  4  71  250  281  278
  4  250  22  268  281
  4  281  268  77  282
  4  278  281  282  78
  4  78  282  283  285
  4  282  77  276  283
  4  283  276  23  284
  4  285  283  284  79
  4  80  279  286  288
  4  279  78  285  286
  4  286  285  79  287
  4  288  286  287  3

CELL_TYPES 256
9
9
9
9
9
9
9
9
9
9
9
9
9
9
9
9
9
9
9
9
9
9
9
9
9
9
9
9
9
9
9
9
9
9
9
9
9
9
9
9
9
9
9
9
9
9
9
9
9
9
9
9
9
9
9
9
9
9
9
9
9
9
9
9
9
9
9
9
9
9
9
9
9
9
9
9
9
9
9
9
9
9
9
9
9
9
9
9
9
9
9
9
9
9
9
9
9
9
9
9
9
9
9
9
9
9
9
9
9
9
9
9
9
9
9
9
9
9
9
9
9
9
9
9
9
9
9
9
9
9
9
9
9
9
9
9
9
9
9
9
9
9
9
9
9
9
9
9
9
9
9
9
9
9
9
9
9
9
9
9
9
9
9
9
9
9
9
9
9
9
9
9
9
9
9
9
9
9
9
9
9
9
9
9
9
9
9
9
9
9
9
9
9
9
9
9
9
9
9
9
9
9
9
9
9
9
9
9
9
9
9
9
9
9
9
9
9
9
9
9
9
9
9
9
9
9
9
9
9
9
9
9
9
9
9
9
9
9
9
9
9
9
9
9
9
9
9
9
9
9
9
9
9
9
9
9

POINT_DATA 289
VECTORS displacement double
  0.0  0.0  0.000000
  0.0  0.0  0.295520
  0.0  0.0  0.295520
  0.0  0.0  0.000000
  0.0  0.0  0.147760
  0.0  0.0  0.147760
  0.0  0.0  0.295520
  0.0  0.0  0.147760
  0.0  0.0  0.000000
  0.0  0.0  0.046630
  0.0  0.0  0.045119
  0.0  0.0  0.147760
  0.0  0.0  0.046606
  0.0  0.0  0.000000
  0.0  0.0  0.248890
  0.0  0.0  0.250401
  0.0  0.0  0.295520
  0.0  0.0  0.248914
  0.0  0.0  0.248890
  0.0  0.0  0.295520
  0.0  0.0  0.250401
  0.0  0.0  0.147760
  0.0  0.0  0.046630
  0.0  0.0  0.045119
  0.0  0.0  0.000000
  0.0  0.0  0.012932
  0.0  0.0  0.011904
  0.0  0.0  0.046294
  0.0  0.0  0.013047
  0.0  0.0  0.000000
  0.0  0.0  0.093528
  0.0  0.0  0.092802
  0.0  0.0  0.147760
  0.0  0.0  0.093793
  0.0  0.0  0.093829
  0.0  0.0  0.147760
  0.0  0.0  0.093818
  0.0  0.0  0.046633
  0.0  0.0  0.013010
  0.0  0.0  0.012991
  0.0  0.0  0.000000
  0.0  0.0  0.201993
  0.0  0.0  0.202718
  0.0  0.0  0.249226
  0.0  0.0  0.201727
  0.0  0.0  0.282588
  0.0  0.0  0.283616
  0.0  0.0  0.295520
  0.0  0.0  0.282473
  0.0  0.0  0.282510
  0.0  0.0  0.295520
  0.0  0.0  0.282530
  0.0  0.0  0.248887
  0.0  0.0  0.201691
  0.0  0.0  0.201702
  0.0  0.0  0.201691
  0.0  0.0  0.248887
  0.0  0.0  0.201727
  0.0  0.0  0.147760
  0.0  0.0  0.282510
  0.0  0.0  0.295520
  0.0  0.0  0.282473
  0.0  0.0  0.282588
  0.0  0.0  0.295520
  0.0  0.0  0.283616
  0.0  0.0  0.249226
  0.0  0.0  0.201993
  0.0  0.0  0.202718
  0.0  0.0  0.147760
  0.0  0.0  0.013010
  0.0  0.0  0.046633
  0.0  0.0  0.013047
  0.0  0.0  0.000000
  0.0  0.0  0.093829
  0.0  0.0  0.093793
  0.0  0.0  0.093528
  0.0  0.0  0.092802
  0.0  0.0  0.046294
  0.0  0.0  0.012932
  0.0  0.0  0.011904
  0.0  0.0  0.000000
  0.0  0.0  0.003382
  0.0  0.0  0.002884
  0.0  0.0  0.012598
  0.0  0.0  0.003500
  0.0  0.0  0.000000
  0.0  0.0  0.027026
  0.0  0.0  0.026263
  0.0  0.0  0.045844
  0.0  0.0  0.027456
  0.0  0.0  0.027658
  0.0  0.0  0.046532
  0.0  0.0  0.027717
  0.0  0.0  0.013035
  0.0  0.0  0.003510
  0.0  0.0  0.003502
  0.0  0.0  0.000000
  0.0  0.0  0.068206
  0.0  0.0  0.067600
  0.0  0.0  0.093236
  0.0  0.0  0.068601
  0.0  0.0  0.120051
  0.0  0.0  0.119826
  0.0  0.0  0.147760
  0.0  0.0  0.120205
  0.0  0.0  0.120300
  0.0  0.0  0.147760
  0.0  0.0  0.120350
  0.0  0.0  0.093703
  0.0  0.0  0.068830
  0.0  0.0  0.068937
  0.0  0.0  0.068970
  0.0  0.0  0.093826
  0.0  0.0  0.068966
  0.0  0.0  0.046648
  0.0  0.0  0.120371
  0.0  0.0  0.147760
  0.0  0.0  0.120375
  0.0  0.0  0.120372
  0.0  0.0  0.147760
  0.0  0.0  0.120370
  0.0  0.0  0.093822
  0.0  0.0  0.068952
  0.0  0.0  0.068946
  0.0  0.0  0.046614
  0.0  0.0  0.003491
  0.0  0.0  0.013031
  0.0  0.0  0.003482
  0.0  0.0  0.000000
  0.0  0.0  0.027713
  0.0  0.0  0.027690
  0.0  0.0  0.027670
  0.0  0.0  0.027663
  0.0  0.0  0.012996
  0.0  0.0  0.003476
  0.0  0.0  0.003474
  0.0  0.0  0.000000
  0.0  0.0  0.175469
  0.0  0.0  0.175694
  0.0  0.0  0.202284
  0.0  0.0  0.175315
  0.0  0.0  0.227315
  0.0  0.0  0.227921
  0.0  0.0  0.249676
  0.0  0.0  0.226920
  0.0  0.0  0.226691
  0.0  0.0  0.248989
  0.0  0.0  0.226583
  0.0  0.0  0.201817
  0.0  0.0  0.175220
  0.0  0.0  0.175170
  0.0  0.0  0.268495
  0.0  0.0  0.269257
  0.0  0.0  0.282922
  0.0  0.0  0.268064
  0.0  0.0  0.292138
  0.0  0.0  0.292636
  0.0  0.0  0.295520
  0.0  0.0  0.292020
  0.0  0.0  0.292010
  0.0  0.0  0.295520
  0.0  0.0  0.292019
  0.0  0.0  0.282485
  0.0  0.0  0.267862
  0.0  0.0  0.267803
  0.0  0.0  0.267808
  0.0  0.0  0.282490
  0.0  0.0  0.267830
  0.0  0.0  0.248872
  0.0  0.0  0.292029
  0.0  0.0  0.295520
  0.0  0.0  0.292038
  0.0  0.0  0.292044
  0.0  0.0  0.295520
  0.0  0.0  0.292046
  0.0  0.0  0.282524
  0.0  0.0  0.267850
  0.0  0.0  0.267858
  0.0  0.0  0.248906
  0.0  0.0  0.175149
  0.0  0.0  0.201694
  0.0  0.0  0.175146
  0.0  0.0  0.226550
  0.0  0.0  0.226555
  0.0  0.0  0.226568
  0.0  0.0  0.226574
  0.0  0.0  0.201698
  0.0  0.0  0.175148
  0.0  0.0  0.175150
  0.0  0.0  0.175148
  0.0  0.0  0.201698
  0.0  0.0  0.175146
  0.0  0.0  0.147760
  0.0  0.0  0.226568
  0.0  0.0  0.248906
  0.0  0.0  0.226555
  0.0  0.0  0.226550
  0.0  0.0  0.248872
  0.0  0.0  0.226583
  0.0  0.0  0.201694
  0.0  0.0  0.175149
  0.0  0.0  0.175170
  0.0  0.0  0.147760
  0.0  0.0  0.267850
  0.0  0.0  0.282524
  0.0  0.0  0.267830
  0.0  0.0  0.292044
  0.0  0.0  0.295520
  0.0  0.0  0.292038
  0.0  0.0  0.292029
  0.0  0.0  0.295520
  0.0  0.0  0.292019
  0.0  0.0  0.282490
  0.0  0.0  0.267808
  0.0  0.0  0.267803
  0.0  0.0  0.267862
  0.0  0.0  0.282485
  0.0  0.0  0.268064
  0.0  0.0  0.248989
  0.0  0.0  0.292010
  0.0  0.0  0.295520
  0.0  0.0  0.292020
  0.0  0.0  0.292138
  0.0  0.0  0.295520
  0.0  0.0  0.292636
  0.0  0.0  0.282922
  0.0  0.0  0.268495
  0.0  0.0  0.269257
  0.0  0.0  0.249676
  0.0  0.0  0.175220
  0.0  0.0  0.201817
  0.0  0.0  0.175315
  0.0  0.0  0.147760
  0.0  0.0  0.226691
  0.0  0.0  0.226920
  0.0  0.0  0.227315
  0.0  0.0  0.227921
  0.0  0.0  0.202284
  0.0  0.0  0.175469
  0.0  0.0  0.175694
  0.0  0.0  0.147760
  0.0  0.0  0.003476
  0.0  0.0  0.012996
  0.0  0.0  0.003482
  0.0  0.0  0.000000
  0.0  0.0  0.027670
  0.0  0.0  0.046614
  0.0  0.0  0.027690
  0.0  0.0  0.027713
  0.0  0.0  0.046648
  0.0  0.0  0.027717
  0.0  0.0  0.013031
  0.0  0.0  0.003491
  0.0  0.0  0.003502
  0.0  0.0  0.000000
  0.0  0.0  0.068952
  0.0  0.0  0.093822
  0.0  0.0  0.068966
  0.0  0.0  0.120372
  0.0  0.0  0.120375
  0.0  0.0  0.120371
  0.0  0.0  0.120350
  0.0  0.0  0.093826
  0.0  0.0  0.068970
  0.0  0.0  0.068937
  0.0  0.0  0.068830
  0.0  0.0  0.093703
  0.0  0.0  0.068601
  0.0  0.0  0.046532
  0.0  0.0  0.120300
  0.0  0.0  0.120205
  0.0  0.0  0.120051
  0.0  0.0  0.119826
  0.0  0.0  0.093236
  0.0  0.0  0.068206
  0.0  0.0  0.067600
  0.0  0.0  0.045844
  0.0  0.0  0.003510
  0.0  0.0  0.013035
  0.0  0.0  0.003500
  0.0  0.0  0.000000
  0.0  0.0  0.027658
  0.0  0.0  0.027456
  0.0  0.0  0.027026
  0.0  0.0  0.026263
  0.0  0.0  0.012598
  0.0  0.0  0.003382
  0.0  0.0  0.002884
  0.0  0.0  0.000000
